ch4.data.lammps (written by ASE) 

5 	 atoms 
2  atom types
0.0                       8  xlo xhi
0.0                       8  ylo yhi
0.0                       8  zlo zhi

Masses

1 12.0107
2 1.00794

Atoms 
#   tag type            x                       y                       z
     1   1              3.85524698      3.5358760150000004      3.7935982299999997
     2   2      5.0510187799999997      4.2317023350000005      2.2558214299999997
     3   2      3.7793409900000001      4.5820786350000002      5.7441785699999999
     4   2      2.7471108399999999      5.4531572050000001      5.6051536099999995
     5   2      5.2528891600000005      2.5468427950000003      3.7400980099999996
