#Two hydrogen atoms

2 atoms
0 2.1 xlo xhi
0 2.1 ylo yhi
0 2.1 zlo zhi

1 atom types

Masses

1 1.00794

Atoms

1      1      0.7      0.7      0.7
2      1      1.3      1.3      1.3
