32
# CELL(abcABC):   7.21624    7.21624    7.21624    90.00000    90.00000    90.00000  Step:       0  Bead:       0 positions{angstrom}  cell{angstrom}
Ni       0.00000000       0.00000000       0.00000000
Ni       1.80406000      -0.00000000       1.80406000
Ni       1.80406000       1.80406000       0.00000000
Ni       0.00000000       1.80406000       1.80406000
Ni       3.60812000       0.00000000      -0.00000000
Ni       5.41218000      -0.00000000       1.80406000
Ni       5.41218000       1.80406000      -0.00000000
Ni       3.60812000       1.80406000       1.80406000
Ni       0.00000000       3.60812000       0.00000000
Ni       1.80406000       3.60812000       1.80406000
Ni       1.80406000       5.41218000       0.00000000
Ni       0.00000000       5.41218000       1.80406000
Ni       3.60812000       3.60812000       0.00000000
Ni       5.41218000       3.60812000       1.80406000
Ni       5.41218000       5.41218000       0.00000000
Ni       3.60812000       5.41218000       1.80406000
Ni       0.00000000      -0.00000000       3.60812000
Ni       1.80406000      -0.00000000       5.41218000
Ni       1.80406000       1.80406000       3.60812000
Ni       0.00000000       1.80406000       5.41218000
Ni       3.60812000      -0.00000000       3.60812000
Ni       5.41218000      -0.00000000       5.41218000
Ni       5.41218000       1.80406000       3.60812000
Ni       3.60812000       1.80406000       5.41218000
Ni       0.00000000       3.60812000       3.60812000
Ni       1.80406000       3.60812000       5.41218000
Ni       1.80406000       5.41218000       3.60812000
Ni       0.00000000       5.41218000       5.41218000
Ni       3.60812000       3.60812000       3.60812000
Ni       5.41218000       3.60812000       5.41218000
Ni       5.41218000       5.41218000       3.60812000
Ni       3.60812000       5.41218000       5.41218000
